formula,atom a,atom b,lowest distortion,e_form,mu_b,vpa,gap pbe,a,alpha,beta,gamma,e_form oxygen
YbLaO3,Yb,La,cubic,-2.533,0.189,17.574,0,4.446,90,90,90,-1.381
PaTmO3,Pa,Tm,cubic,-2.533,0.387,14.962,0,4.214,90,90,90,3.81
FePmO3,Fe,Pm,orthorhombic,-2.532,1,13.471,1.787,5.614,90,90,90,-6.993
SmGeO3,Sm,Ge,orthorhombic,-2.531,0,12.471,0,5.442,90,90,90,3.064
LaTcO3,La,Tc,orthorhombic,-2.531,0.392,12.754,0,5.497,90,90,90,2.914
ErBO3,Er,B,cubic,-2.53,0,8.096,3.096,3.434,90,90,90,5.502
ThNdO3,Th,Nd,cubic,-2.53,0.001,17.778,0,4.463,90,90,90,1.698
EuTcO3,Eu,Tc,orthorhombic,-2.529,0.268,11.721,0,5.446,90,90,90,3.834
ErUO3,Er,U,cubic,-2.528,0.527,16.835,0,4.383,90,90,90,1.558
VHfO3,V,Hf,cubic,-2.528,0.6,13.25,0,4.046,90,90,90,3.531
HoBO3,Ho,B,cubic,-2.528,0,8.163,3.049,3.443,90,90,90,5.471
BiHfO3,Bi,Hf,orthorhombic,-2.527,0.003,13.754,0,5.725,90,90,90,4.027
CrTaO3,Cr,Ta,orthorhombic,-2.527,0.95,11.48,0,5.398,90,90,90,5.251
DyBO3,Dy,B,cubic,-2.526,0,8.244,3.002,3.454,90,90,90,5.458
PmGeO3,Pm,Ge,orthorhombic,-2.526,0,12.563,0,5.466,90,90,90,3.113
LuBO3,Lu,B,cubic,-2.525,0,7.901,3.125,3.406,90,90,90,5.405
TbSiO3,Tb,Si,cubic,-2.524,0,10.048,0,3.69,90,90,90,4.622
ErNpO3,Er,Np,cubic,-2.521,0.761,17.041,0,4.4,90,90,90,2.006
ZrNaO3,Zr,Na,orthorhombic,-2.521,0.052,13.311,0,5.23,90,90,90,-4.743
TmNbO3,Tm,Nb,cubic,-2.518,0,12.974,0,4.018,90,90,90,2.767
TbPuO3,Tb,Pu,cubic,-2.518,0.919,16.564,0,4.359,90,90,90,-0.554
NdCeO3,Nd,Ce,cubic,-2.517,0,18.828,0.73,4.549,90,90,90,2.475
ErPmO3,Er,Pm,cubic,-2.515,0,17.07,0.344,4.403,90,90,90,-1.673
GdBO3,Gd,B,cubic,-2.513,0,8.405,2.803,3.477,90,90,90,5.367
AgUO3,Ag,U,rhombohedral,-2.513,0.2,14.714,2.636,6.032,57.7,57.7,57.7,3.748
CaPmO3,Ca,Pm,cubic,-2.511,0.2,17.023,0,4.399,90,90,90,-1.382
NdGeO3,Nd,Ge,orthorhombic,-2.51,0,12.733,0,5.5,90,90,90,3.182
SnThO3,Sn,Th,cubic,-2.51,0,19.05,0.645,4.567,90,90,90,3.095
MnAlO3,Mn,Al,orthorhombic,-2.509,0.8,8.943,0,4.793,90,90,90,-0.538
CeSnO3,Ce,Sn,orthorhombic,-2.509,0,15.004,0,5.801,90,90,90,2.823
UPmO3,U,Pm,cubic,-2.507,0.6,17.331,0,4.425,90,90,90,0.672
LuPuO3,Lu,Pu,cubic,-2.506,0.874,16.523,0,4.355,90,90,90,2.614
LuMgO3,Lu,Mg,cubic,-2.506,0.198,10.73,0,3.772,90,90,90,-2.022
LaCoO3,La,Co,orthorhombic,-2.505,0.403,11.446,0,5.44,90,90,90,2.964
TmUO3,Tm,U,cubic,-2.505,0.514,16.852,0,4.384,90,90,90,1.536
TlHfO3,Tl,Hf,orthorhombic,-2.504,0,13.505,0,5.706,90,90,90,0.974
CsZrO3,Cs,Zr,cubic,-2.502,0.2,15.888,0,4.299,90,90,90,-0.121
YNdO3,Y,Nd,cubic,-2.502,0,17.67,0.825,4.454,90,90,90,-1.797
YbTcO3,Yb,Tc,orthorhombic,-2.501,0.326,11.202,0,5.261,90,90,90,2.947
AcWO3,Ac,W,orthorhombic,-2.501,0.003,13.405,0,5.669,90,90,90,3.492
ScHoO3,Sc,Ho,cubic,-2.501,0,15.091,0.687,4.226,90,90,90,-1.919
PmWO3,Pm,W,orthorhombic,-2.5,-0.001,12.385,0,5.321,90,90,90,2.089
WYbO3,W,Yb,rhombohedral,-2.5,0.001,14.644,0.685,5.95,59.3,59.3,59.3,-13.326
SmYbO3,Sm,Yb,cubic,-2.5,-0.158,13.968,0,4.118,90,90,90,-1.411
TiAlO3,Ti,Al,cubic,-2.499,0.2,9.244,0,3.589,90,90,90,2.463
InZrO3,In,Zr,rhombohedral,-2.498,0,13.359,0,5.698,60.9,60.9,60.9,2.912
ZnPaO3,Zn,Pa,rhombohedral,-2.497,0.2,14.663,1.523,6.136,55.6,55.6,55.6,3.359
TbNbO3,Tb,Nb,cubic,-2.497,0.001,13.042,0,4.025,90,90,90,3.209
SmTcO3,Sm,Tc,orthorhombic,-2.497,0.389,12.16,0,5.34,90,90,90,1.831
PrGeO3,Pr,Ge,orthorhombic,-2.496,0,12.886,0,5.533,90,90,90,3.236
CdPuO3,Cd,Pu,orthorhombic,-2.495,0.8,14.211,1.77,5.726,90,90,90,2.051
TmNpO3,Tm,Np,cubic,-2.494,0.751,17.067,0,4.403,90,90,90,1.718
NbNaO3,Nb,Na,orthorhombic,-2.492,0,13.091,2.601,5.522,90,90,90,-10.647
LaEuO3,La,Eu,cubic,-2.492,0.137,15.833,0,4.294,90,90,90,-1.022
YbNdO3,Yb,Nd,cubic,-2.492,0.2,17.07,0,4.403,90,90,90,-1.651
MnTaO3,Mn,Ta,orthorhombic,-2.49,0.8,11.181,0,5.262,90,90,90,4.948
PuWO3,Pu,W,cubic,-2.49,1.188,12.841,0,4.004,90,90,90,3.86
PmTcO3,Pm,Tc,orthorhombic,-2.49,0.388,12.267,0,5.357,90,90,90,1.999
MgTaO3,Mg,Ta,cubic,-2.49,0,12.58,0,3.977,90,90,90,4.98
SnTiO3,Sn,Ti,tetragonal,-2.488,0,12.534,0.744,3.867,90,90,90,4.657
SmCoO3,Sm,Co,orthorhombic,-2.487,0.4,11.162,0,5.289,90,90,90,2.931
MnSiO3,Mn,Si,orthorhombic,-2.487,1,8.709,3.851,4.928,90,90,90,5.482
YBO3,Y,B,cubic,-2.487,0,8.307,2.953,3.463,90,90,90,5.345
DyNdO3,Dy,Nd,cubic,-2.487,0,17.598,0.497,4.448,90,90,90,-1.117
AcTcO3,Ac,Tc,orthorhombic,-2.487,0.397,13.358,0,5.652,90,90,90,3.73
ScCrO3,Sc,Cr,cubic,-2.486,0.6,10.702,0.436,3.768,90,90,90,2.781
LaCaO3,La,Ca,cubic,-2.484,0.2,14.681,0,4.187,90,90,90,-1.704
PaMgO3,Pa,Mg,cubic,-2.484,0.2,11.029,0,3.806,90,90,90,3.097
NpGeO3,Np,Ge,orthorhombic,-2.482,0.798,12.842,0,5.546,90,90,90,3.955
TmPmO3,Tm,Pm,cubic,-2.48,0,17.048,0,4.401,90,90,90,-2.151
ScUO3,Sc,U,cubic,-2.48,0.579,16.403,0,4.345,90,90,90,3.072
SmPaO3,Sm,Pa,cubic,-2.48,0.308,17.873,0,4.471,90,90,90,3.036
PmCoO3,Pm,Co,orthorhombic,-2.479,0.4,11.223,0,5.313,90,90,90,2.99
CeGeO3,Ce,Ge,orthorhombic,-2.479,0,13.068,0,5.575,90,90,90,3.297
TbPmO3,Tb,Pm,cubic,-2.478,0,17.16,1.041,4.411,90,90,90,-0.382
LuSmO3,Lu,Sm,cubic,-2.478,0,16.714,0,4.372,90,90,90,-1.156
PmCeO3,Pm,Ce,cubic,-2.477,0,18.779,0.759,4.545,90,90,90,2.324
SmBO3,Sm,B,cubic,-2.474,0,8.649,2.677,3.51,90,90,90,5.211
LuUO3,Lu,U,cubic,-2.473,0.451,16.973,0,4.395,90,90,90,1.311
TbNpO3,Tb,Np,cubic,-2.471,0.782,17.168,0,4.411,90,90,90,2.531
NdTcO3,Nd,Tc,orthorhombic,-2.469,0.389,12.448,0,5.39,90,90,90,2.231
PrWO3,Pr,W,orthorhombic,-2.469,0.001,12.729,0,5.371,90,90,90,2.545
TmZnO3,Tm,Zn,orthorhombic,-2.469,0,10.986,0,5.187,90,90,90,-0.492
GdPrO3,Gd,Pr,cubic,-2.468,0,18.13,0.601,4.492,90,90,90,-2.045
LuNbO3,Lu,Nb,cubic,-2.467,0,12.973,0,4.018,90,90,90,2.619
GeCeO3,Ge,Ce,orthorhombic,-2.466,0,15.221,0,5.774,90,90,90,-4.155
ThLaO3,Th,La,cubic,-2.466,0.001,18.489,0,4.522,90,90,90,0.496
AcSbO3,Ac,Sb,orthorhombic,-2.465,0,16.31,0.296,5.98,90,90,90,2.835
PbTmO3,Pb,Tm,orthorhombic,-2.464,0,14.402,0,5.744,90,90,90,-0.874
TbUO3,Tb,U,cubic,-2.464,0.556,16.794,0,4.379,90,90,90,1.95
ZrRbO3,Zr,Rb,orthorhombic,-2.464,0.2,17.128,1.244,6.546,90,90,90,-16.391
FeCeO3,Fe,Ce,orthorhombic,-2.463,1,14.287,1.584,5.697,90,90,90,-6.169
PmBO3,Pm,B,cubic,-2.462,0,8.751,2.59,3.524,90,90,90,5.137
USiO3,U,Si,cubic,-2.462,0.734,10.727,0,3.771,90,90,90,3.318
CeAcO3,Ce,Ac,cubic,-2.462,0,20.385,0,4.671,90,90,90,1.916
BaCrO3,Ba,Cr,orthorhombic,-2.461,0.4,12.39,0.258,5.607,90,90,90,1.778
ErZnO3,Er,Zn,orthorhombic,-2.459,-0.002,11.089,0,5.21,90,90,90,-0.385
NaTiO3,Na,Ti,cubic,-2.459,0.083,11.577,0,3.868,90,90,90,-0.301
NpTcO3,Np,Tc,orthorhombic,-2.457,0.4,12.416,0,5.301,90,90,90,2.192
HoNdO3,Ho,Nd,cubic,-2.456,0,17.601,0.331,4.448,90,90,90,-2.305
NdCoO3,Nd,Co,orthorhombic,-2.456,0.4,11.251,0,5.348,90,90,90,3.124
CaNdO3,Ca,Nd,cubic,-2.455,0.2,17.345,0,4.426,90,90,90,-1.416
LiTiO3,Li,Ti,orthorhombic,-2.454,0.199,9.643,0,5.08,90,90,90,-0.779
PrTcO3,Pr,Tc,orthorhombic,-2.451,0.39,12.616,0,5.428,90,90,90,2.453
ScDyO3,Sc,Dy,cubic,-2.451,0,15.377,0.464,4.252,90,90,90,-2.252
MoYbO3,Mo,Yb,orthorhombic,-2.45,0.398,12.85,0,5.502,90,90,90,-10.578
EuReO3,Eu,Re,orthorhombic,-2.45,-0.002,11.845,0,5.458,90,90,90,3.283
CeWO3,Ce,W,orthorhombic,-2.449,0,12.918,0,5.405,90,90,90,2.795
ScBeO3,Sc,Be,cubic,-2.449,-0.013,8.114,0,3.436,90,90,90,-2.106
LuNpO3,Lu,Np,cubic,-2.448,0.736,17.011,0,4.398,90,90,90,1.495
PbErO3,Pb,Er,orthorhombic,-2.446,0,14.584,0,5.766,90,90,90,-0.941
YLaO3,Y,La,cubic,-2.446,0,18.419,0.387,4.516,90,90,90,-2.941
ThPrO3,Th,Pr,cubic,-2.444,0.003,18.143,0,4.493,90,90,90,1.508
SmCeO3,Sm,Ce,cubic,-2.444,0,18.747,0.779,4.543,90,90,90,-1.929
KTiO3,K,Ti,tetragonal,-2.443,0.201,12.265,0,3.943,90,90,90,-0.13
CrSrO3,Cr,Sr,orthorhombic,-2.443,0.4,14.672,1.367,5.503,90,90,90,-14.856
MoEuO3,Mo,Eu,orthorhombic,-2.442,0.188,13.797,0,5.43,90,90,90,-12.294
YbPrO3,Yb,Pr,cubic,-2.441,0.2,17.502,0,4.44,90,90,90,-1.717
GdYbO3,Gd,Yb,cubic,-2.441,0.158,13.821,0,4.104,90,90,90,-1.69
LaBO3,La,B,cubic,-2.441,0,9.267,2.138,3.592,90,90,90,4.68
EuBaO3,Eu,Ba,orthorhombic,-2.44,0,17.65,2.094,6.58,90,90,90,-1.762
LuNiO3,Lu,Ni,orthorhombic,-2.44,0.2,10.119,0,5.054,90,90,90,0.736
SbHfO3,Sb,Hf,orthorhombic,-2.438,0.001,13.398,0,5.678,90,90,90,3.791
CdTiO3,Cd,Ti,orthorhombic,-2.435,0,10.987,2.225,5.299,90,90,90,3.466
GaPaO3,Ga,Pa,orthorhombic,-2.435,0,15.708,2.72,6.024,90,90,90,5.587
TmNiO3,Tm,Ni,orthorhombic,-2.435,0.2,10.252,0,5.096,90,90,90,0.857
EuSbO3,Eu,Sb,orthorhombic,-2.434,0,13.617,0,5.676,90,90,90,2.693
ScPuO3,Sc,Pu,cubic,-2.434,0.998,16.282,0,4.334,90,90,90,-1.12
GdZnO3,Gd,Zn,orthorhombic,-2.434,0,11.486,0,5.274,90,90,90,-0.05
CoDyO3,Co,Dy,rhombohedral,-2.431,0.799,13.398,1.607,5.988,55,55,55,-4.651
EuGaO3,Eu,Ga,rhombohedral,-2.43,0.199,11.255,0,5.329,62.3,62.3,62.3,-0.252
PaHoO3,Pa,Ho,cubic,-2.428,0.389,15.421,0,4.256,90,90,90,3.413
ScYO3,Sc,Y,cubic,-2.427,0,15.373,0.665,4.252,90,90,90,-2.179
DyLaO3,Dy,La,cubic,-2.427,0,18.299,0,4.506,90,90,90,2.068
CeTcO3,Ce,Tc,orthorhombic,-2.426,0.393,12.803,0,5.478,90,90,90,2.744
GdPaO3,Gd,Pa,cubic,-2.426,0.295,17.779,0,4.463,90,90,90,2.874
AcCoO3,Ac,Co,rhombohedral,-2.426,0.592,11.94,0,5.522,60.1,60.1,60.1,3.33
CuPaO3,Cu,Pa,rhombohedral,-2.425,0,13.659,2.633,5.994,55.6,55.6,55.6,4.128
ErNdO3,Er,Nd,cubic,-2.424,0,17.56,0,4.445,90,90,90,-2.591
ThEuO3,Th,Eu,cubic,-2.424,0.011,16.145,0,4.322,90,90,90,-2.885
CeCoO3,Ce,Co,orthorhombic,-2.423,0.4,11.414,0,5.398,90,90,90,3.21
YZnO3,Y,Zn,orthorhombic,-2.423,0,11.326,0,5.255,90,90,90,-0.209
LaZnO3,La,Zn,orthorhombic,-2.422,0,12.144,0,5.52,90,90,90,0.433
ErNiO3,Er,Ni,orthorhombic,-2.422,0.2,10.367,0,5.116,90,90,90,0.935
TlTaO3,Tl,Ta,tetragonal,-2.422,0,13.343,0.836,4.037,90,90,90,5.427
LuPmO3,Lu,Pm,cubic,-2.42,0,17.017,0,4.398,90,90,90,-2.609
YPrO3,Y,Pr,cubic,-2.419,0,18.136,0.619,4.493,90,90,90,-2.36
PmPuO3,Pm,Pu,cubic,-2.419,0.968,22.161,0,4.803,90,90,90,-0.823
WBaO3,W,Ba,rhombohedral,-2.419,0,18.913,1.695,6.269,63.9,63.9,63.9,-18.683
YbReO3,Yb,Re,orthorhombic,-2.419,-0.007,11.283,0,5.266,90,90,90,2.418
PrAcO3,Pr,Ac,cubic,-2.418,0,20.551,0,4.684,90,90,90,1.878
HgHfO3,Hg,Hf,rhombohedral,-2.418,0,12.975,1.478,5.758,58.3,58.3,58.3,0.852
EuFeO3,Eu,Fe,orthorhombic,-2.417,0.8,10.78,0,5.324,90,90,90,1.667
NpAcO3,Np,Ac,cubic,-2.417,0.8,20.378,0,4.671,90,90,90,1.788
Ti2O3,Ti,Ti,cubic,-2.417,0.384,11.154,0,3.821,90,90,90,2.661
AcZnO3,Ac,Zn,orthorhombic,-2.416,0,12.54,0,5.587,90,90,90,0.739
LaAsO3,La,As,orthorhombic,-2.415,0,13.681,0,5.658,90,90,90,3.038
HoNiO3,Ho,Ni,orthorhombic,-2.415,0.2,10.449,0,5.143,90,90,90,0.995
NpBO3,Np,B,cubic,-2.414,0.8,9.112,0,3.572,90,90,90,4.958
MgEuO3,Mg,Eu,orthorhombic,-2.413,0,12.876,2.525,5.899,90,90,90,-4.319
CoYO3,Co,Y,rhombohedral,-2.413,0.8,13.471,1.763,5.999,54.9,54.9,54.9,-4.168
WSrO3,W,Sr,rhombohedral,-2.413,0,16.614,1.361,6.037,63.1,63.1,63.1,-16.873
InThO3,In,Th,cubic,-2.411,-0.149,18.845,0,4.55,90,90,90,0.258
GdRhO3,Gd,Rh,orthorhombic,-2.408,0,11.717,0.966,5.291,90,90,90,0.071
DyNiO3,Dy,Ni,orthorhombic,-2.408,0.2,10.539,0,5.166,90,90,90,1.062
YPaO3,Y,Pa,cubic,-2.407,0.334,17.775,0,4.463,90,90,90,3.01
CaPrO3,Ca,Pr,cubic,-2.407,0.2,17.748,0,4.46,90,90,90,-1.401
TiLiO3,Ti,Li,orthorhombic,-2.407,0.139,9.459,0,4.842,90,90,90,-4.334
ScNbO3,Sc,Nb,cubic,-2.405,0.161,12.75,0,3.995,90,90,90,3.214
LiLaO3,Li,La,orthorhombic,-2.405,0,12.879,2.829,5.849,90,90,90,-1.742
DyPrO3,Dy,Pr,cubic,-2.403,0,18.062,0.321,4.487,90,90,90,-2.614
MoAcO3,Mo,Ac,rhombohedral,-2.403,0.2,16.382,0,5.917,65.4,65.4,65.4,-8.478
PuTcO3,Pu,Tc,rhombohedral,-2.403,1.117,12.358,0,5.391,65.3,65.3,65.3,1.436
SmZnO3,Sm,Zn,orthorhombic,-2.402,0,11.701,0,5.327,90,90,90,0.146
PbScO3,Pb,Sc,orthorhombic,-2.402,-0.001,13.089,0,5.582,90,90,90,-0.488
CeEuO3,Ce,Eu,cubic,-2.401,0.158,15.852,0,4.296,90,90,90,-1.015
PrBO3,Pr,B,cubic,-2.4,0,9.076,2.243,3.567,90,90,90,4.889
PbYO3,Pb,Y,orthorhombic,-2.399,0,14.833,0,5.791,90,90,90,-0.732
ZrLuO3,Zr,Lu,cubic,-2.399,0.193,14.065,0,4.128,90,90,90,-2.884
TbCoO3,Tb,Co,orthorhombic,-2.398,0.401,10.841,0,5.2,90,90,90,2.511
AcAsO3,Ac,As,orthorhombic,-2.398,0,14.355,0,5.78,90,90,90,3.634
GaTaO3,Ga,Ta,tetragonal,-2.396,0,12.719,0.989,3.966,90,90,90,5.757
SnUO3,Sn,U,cubic,-2.396,0.274,16.719,0,4.372,90,90,90,3.267
LaRuO3,La,Ru,orthorhombic,-2.396,0.196,12.563,0,5.453,90,90,90,2.045
HoLaO3,Ho,La,cubic,-2.396,0,18.324,0,4.508,90,90,90,1.942
PmZnO3,Pm,Zn,orthorhombic,-2.395,0,11.806,0,5.364,90,90,90,0.243
CeCaO3,Ce,Ca,cubic,-2.39,0.2,14.536,0,4.173,90,90,90,-1.451
PuYbO3,Pu,Yb,cubic,-2.39,0.952,14.051,0,4.126,90,90,90,-2.625
GdNiO3,Gd,Ni,orthorhombic,-2.39,0.2,10.708,0,5.216,90,90,90,1.181
TbBO3,Tb,B,cubic,-2.39,0,8.318,2.961,3.465,90,90,90,5.397
YYbO3,Y,Yb,cubic,-2.389,-0.158,13.809,0,4.102,90,90,90,-1.872
GaEuO3,Ga,Eu,orthorhombic,-2.389,0.2,13.375,0.695,5.225,90,90,90,-6.403
TmNdO3,Tm,Nd,cubic,-2.389,0,17.55,0,4.444,90,90,90,-2.718
SnEuO3,Sn,Eu,orthorhombic,-2.389,0,14.788,0.88,5.707,90,90,90,-5.394
ULaO3,U,La,cubic,-2.388,0.601,19.16,0,4.576,90,90,90,1.159
TbNdO3,Tb,Nd,cubic,-2.388,0,17.645,0.664,4.452,90,90,90,-1.764
BiZrO3,Bi,Zr,orthorhombic,-2.388,0,14.066,0,5.774,90,90,90,3.628
PbGdO3,Pb,Gd,orthorhombic,-2.387,0.001,15.16,0,5.838,90,90,90,-0.992
LaRhO3,La,Rh,orthorhombic,-2.386,0,12.605,0.674,5.503,90,90,90,1.14
YbFeO3,Yb,Fe,orthorhombic,-2.384,0.799,10.36,0,5.221,90,90,90,1.336
DyYbO3,Dy,Yb,cubic,-2.384,0.2,13.713,0,4.093,90,90,90,-1.931
SnPaO3,Sn,Pa,orthorhombic,-2.384,0.2,16.177,2.036,5.929,90,90,90,3.83
Zr2O3,Zr,Zr,cubic,-2.382,0.382,13.915,0,4.113,90,90,90,3.218
MgPaO3,Mg,Pa,cubic,-2.381,0.009,16.741,0,4.374,90,90,90,4.613
YNiO3,Y,Ni,orthorhombic,-2.381,0.2,10.601,0,5.182,90,90,90,1.035
DyPaO3,Dy,Pa,cubic,-2.38,0.284,17.755,0,4.461,90,90,90,2.637
NaWO3,Na,W,cubic,-2.38,0,11.801,0,3.893,90,90,90,5.438
PaDyO3,Pa,Dy,cubic,-2.379,0.391,15.67,0,4.279,90,90,90,3.282
YbCeO3,Yb,Ce,cubic,-2.379,0.2,18.026,0,4.484,90,90,90,-1.777
MnUO3,Mn,U,cubic,-2.377,1.278,16.208,0,4.327,90,90,90,3.612
NdZnO3,Nd,Zn,orthorhombic,-2.377,0,11.958,0,5.395,90,90,90,0.328
LaNiO3,La,Ni,orthorhombic,-2.376,0.215,11.329,0,5.402,90,90,90,1.465
RbTiO3,Rb,Ti,tetragonal,-2.375,0.199,14.325,0,3.888,90,90,90,-0.395
NdAcO3,Nd,Ac,cubic,-2.374,0,20.452,0,4.676,90,90,90,1.695
CaAcO3,Ca,Ac,cubic,-2.373,0.084,19.615,0,4.612,90,90,90,-0.53
InTiO3,In,Ti,orthorhombic,-2.373,0.155,11.691,0,5.347,90,90,90,2.919
KWO3,K,W,orthorhombic,-2.372,-0.001,12.255,0,5.572,90,90,90,6.026
HoPrO3,Ho,Pr,cubic,-2.371,0,18.049,0,4.485,90,90,90,-2.886
GdCeO3,Gd,Ce,cubic,-2.371,0,18.68,0.432,4.537,90,90,90,-2.684
SmRuO3,Sm,Ru,orthorhombic,-2.371,0.199,11.958,0,5.295,90,90,90,1.228
SmRhO3,Sm,Rh,orthorhombic,-2.37,0,11.987,0.783,5.337,90,90,90,0.38
LiAcO3,Li,Ac,orthorhombic,-2.369,0,13.879,2.806,5.9,90,90,90,-0.964
AcPbO3,Ac,Pb,orthorhombic,-2.369,0,16.738,0,6.034,90,90,90,1.255
SrMnO3,Sr,Mn,orthorhombic,-2.368,0.6,11.38,0,5.425,90,90,90,1.412
CdPaO3,Cd,Pa,rhombohedral,-2.367,0.2,15.768,0.51,6.159,58,58,58,4.126
TiPbO3,Ti,Pb,orthorhombic,-2.367,0,15.451,1.808,5.589,90,90,90,0.001
ZrSnO3,Zr,Sn,orthorhombic,-2.367,0,15.092,0.822,5.909,90,90,90,1.196
TlLuO3,Tl,Lu,orthorhombic,-2.366,0,13.522,0.931,5.649,90,90,90,-2.715
AcNiO3,Ac,Ni,orthorhombic,-2.365,0.2,11.833,0,5.505,90,90,90,1.575
TiKO3,Ti,K,orthorhombic,-2.365,0,15.82,0,5.853,90,90,90,-17.251
ErLaO3,Er,La,cubic,-2.364,0,18.281,0,4.505,90,90,90,1.788
PmRuO3,Pm,Ru,orthorhombic,-2.363,0.199,12.076,0,5.315,90,90,90,1.345
PrEuO3,Pr,Eu,cubic,-2.362,0.141,15.752,0,4.287,90,90,90,-1.198
TmPbO3,Tm,Pb,orthorhombic,-2.362,0,14.592,0,5.734,90,90,90,0.49
ThSiO3,Th,Si,cubic,-2.362,0,11.695,0,3.881,90,90,90,1.378
PmRhO3,Pm,Rh,orthorhombic,-2.361,0,12.096,0.945,5.357,90,90,90,0.503
PrZnO3,Pr,Zn,orthorhombic,-2.361,0,12.082,0,5.437,90,90,90,0.43
GeTiO3,Ge,Ti,tetragonal,-2.361,0,12.078,1.509,3.784,90,90,90,4.252
TiNaO3,Ti,Na,orthorhombic,-2.361,0,12.582,0,5.592,90,90,90,-10.414
ZrMgO3,Zr,Mg,cubic,-2.36,0,10.17,0.718,3.705,90,90,90,0.77
TlZrO3,Tl,Zr,orthorhombic,-2.36,0,13.871,0,5.748,90,90,90,0.508
HoPaO3,Ho,Pa,cubic,-2.36,0.274,17.757,0,4.461,90,90,90,2.539
CeBO3,Ce,B,cubic,-2.358,-0.001,9.283,1.934,3.594,90,90,90,4.741
PrCaO3,Pr,Ca,cubic,-2.358,0.2,14.432,0,4.163,90,90,90,-1.865
PaZrO3,Pa,Zr,cubic,-2.358,0.449,14.262,0,4.147,90,90,90,2.907
HoYbO3,Ho,Yb,cubic,-2.358,0.168,13.693,0,4.091,90,90,90,-2.026
SmNiO3,Sm,Ni,orthorhombic,-2.356,0.2,10.909,0,5.28,90,90,90,1.31
TiRbO3,Ti,Rb,orthorhombic,-2.354,0,17.169,0,5.979,90,90,90,-17.758
HfTiO3,Hf,Ti,cubic,-2.353,0.004,11.241,0,3.831,90,90,90,2.226
PaYO3,Pa,Y,cubic,-2.353,0.391,15.618,0,4.274,90,90,90,3.128
CaCeO3,Ca,Ce,cubic,-2.351,0.2,18.285,0,4.505,90,90,90,-1.45
LiWO3,Li,W,rhombohedral,-2.351,0,10.409,0,5.394,57.3,57.3,57.3,4.814
HgUO3,Hg,U,tetragonal,-2.351,0.162,16.227,0,4.323,90,90,90,2.17
CaMnO3,Ca,Mn,tetragonal,-2.349,0.605,11.353,0,3.794,90,90,90,1.209
GaHfO3,Ga,Hf,cubic,-2.349,0.042,13.565,0,4.078,90,90,90,0.75
PmNiO3,Pm,Ni,orthorhombic,-2.348,0.2,10.999,0,5.307,90,90,90,1.376
CrZrO3,Cr,Zr,cubic,-2.348,0.801,13.972,0,4.118,90,90,90,1.022
CrNbO3,Cr,Nb,orthorhombic,-2.348,0.88,11.23,0,5.231,90,90,90,4.426
TlTmO3,Tl,Tm,orthorhombic,-2.346,0,13.809,0.907,5.701,90,90,90,-2.758
ThCeO3,Th,Ce,cubic,-2.346,0.005,18.717,0,4.54,90,90,90,0.544
AcRuO3,Ac,Ru,orthorhombic,-2.345,0.197,13.161,0,5.619,90,90,90,2.787
PrAsO3,Pr,As,orthorhombic,-2.345,0,13.485,0,5.595,90,90,90,2.791
VTiO3,V,Ti,cubic,-2.344,0.6,11.243,0,3.831,90,90,90,1.646
TeEuO3,Te,Eu,orthorhombic,-2.343,0,15.717,3.278,5.827,90,90,90,-9.104
ZnUO3,Zn,U,cubic,-2.342,0.114,15.963,0,4.306,90,90,90,1.935
UYbO3,U,Yb,cubic,-2.341,0.401,14.146,0,4.136,90,90,90,-3.14
Hf2O3,Hf,Hf,cubic,-2.34,0.34,13.349,0,4.056,90,90,90,2.46
ErPrO3,Er,Pr,cubic,-2.34,0,18.047,0,4.485,90,90,90,-2.93
VRbO3,V,Rb,orthorhombic,-2.339,0,17.828,2.477,5.618,90,90,90,-19.751
NdRuO3,Nd,Ru,orthorhombic,-2.339,0.198,12.234,0,5.347,90,90,90,1.544
ScGdO3,Sc,Gd,cubic,-2.339,0,15.967,0.448,4.306,90,90,90,-2.876
NpLiO3,Np,Li,cubic,-2.336,0.795,9.578,0,3.631,90,90,90,-1.828
LiNdO3,Li,Nd,orthorhombic,-2.335,0,12.423,2.55,5.762,90,90,90,-2.224
AcRhO3,Ac,Rh,orthorhombic,-2.334,0,13.23,0.604,5.635,90,90,90,1.899
ZnLaO3,Zn,La,orthorhombic,-2.333,0.2,14.238,0.656,5.439,90,90,90,-4.393
VKO3,V,K,orthorhombic,-2.333,0,16.119,2.424,5.479,90,90,90,-9.684
PmAcO3,Pm,Ac,cubic,-2.333,0,20.362,0,4.669,90,90,90,1.524
CrThO3,Cr,Th,cubic,-2.332,0.798,18.333,0,4.509,90,90,90,-0.954
MnVO3,Mn,V,orthorhombic,-2.33,1.2,10.068,0,5.132,90,90,90,2.704
GdMoO3,Gd,Mo,cubic,-2.33,0.005,12.4,0,3.958,90,90,90,1.977
TaCrO3,Ta,Cr,orthorhombic,-2.33,0.599,10.669,0,5.225,90,90,90,-2.758
ErYbO3,Er,Yb,cubic,-2.33,-0.156,13.649,0,4.087,90,90,90,-2.139
TbLaO3,Tb,La,cubic,-2.329,0,18.381,0,4.513,90,90,90,-2.626
NdNiO3,Nd,Ni,orthorhombic,-2.328,0.2,11.089,0,5.37,90,90,90,1.425
CeAsO3,Ce,As,orthorhombic,-2.328,0,13.684,0,5.632,90,90,90,2.958
VZrO3,V,Zr,cubic,-2.328,0.6,13.826,0,4.104,90,90,90,0.821
TmLaO3,Tm,La,cubic,-2.328,0,18.215,0,4.499,90,90,90,1.591
AgPaO3,Ag,Pa,rhombohedral,-2.326,0,14.961,2.571,6.043,58.2,58.2,58.2,4.367
ScBO3,Sc,B,cubic,-2.326,0,7.496,2.021,3.347,90,90,90,4.771
NdEuO3,Nd,Eu,cubic,-2.325,0.131,15.669,0,4.279,90,90,90,-1.378
NaHoO3,Na,Ho,orthorhombic,-2.324,0,12.936,2.546,6.024,90,90,90,-1.332
YCeO3,Y,Ce,cubic,-2.323,0,18.662,0.389,4.536,90,90,90,-2.979
NdCaO3,Nd,Ca,cubic,-2.323,0.2,14.231,0,4.144,90,90,90,-2.032
MgNbO3,Mg,Nb,cubic,-2.323,0,12.767,0,3.997,90,90,90,4.379
NpWO3,Np,W,cubic,-2.323,0.846,12.801,0,4,90,90,90,1.896
CaTcO3,Ca,Tc,orthorhombic,-2.322,0.346,11.627,0,5.37,90,90,90,3.419
HfMgO3,Hf,Mg,cubic,-2.321,0,9.985,1.042,3.682,90,90,90,0.79
CuTaO3,Cu,Ta,orthorhombic,-2.32,0,10.912,1.36,5.233,90,90,90,5.237
PrRuO3,Pr,Ru,orthorhombic,-2.32,0.198,12.405,0,5.384,90,90,90,1.73
MoCeO3,Mo,Ce,rhombohedral,-2.319,0.2,15.288,0,5.754,66.2,66.2,66.2,-8.761
TmPaO3,Tm,Pa,cubic,-2.319,0.248,17.753,0,4.461,90,90,90,2.359
NpCoO3,Np,Co,cubic,-2.318,0.573,10.705,0,3.769,90,90,90,2.922
LiPrO3,Li,Pr,orthorhombic,-2.317,0,12.66,2.754,5.793,90,90,90,-2.28
PrRhO3,Pr,Rh,orthorhombic,-2.316,0,12.426,0.708,5.421,90,90,90,0.878
AcBO3,Ac,B,cubic,-2.316,0,10.075,1.071,3.693,90,90,90,4.163
TiSnO3,Ti,Sn,orthorhombic,-2.316,0,14.526,1.051,5.463,90,90,90,1.902
ZrTmO3,Zr,Tm,cubic,-2.315,0.2,14.496,0,4.169,90,90,90,-3.645
EuAsO3,Eu,As,tetragonal,-2.314,0,12.16,0,3.81,90,90,90,2.453
TiCdO3,Ti,Cd,orthorhombic,-2.313,0,12.529,2.417,5.395,90,90,90,-7.258