formula,atom a,atom b,lowest distortion,e_form,e_hull,mu_b,vpa,gap pbe,a,c,alpha,gamma,e_form oxygen
CsVO3,Cs,V,cubic,-1.781,0.6,0,12.665,0,3.986,3.986,90,90,0.368
TmRhO3,Tm,Rh,cubic,-1.78,0.653,0.001,11.866,0,3.9,3.9,90,90,-0.484
SnLaO3,Sn,La,cubic,-1.78,1.044,0.001,18.121,0,4.491,4.491,90,90,-3.04
LuRuO3,Lu,Ru,cubic,-1.779,0.772,0.14,11.816,0,3.895,3.895,90,90,0.094
TiBO3,Ti,B,cubic,-1.779,1.094,0.189,7.239,0,3.308,3.308,90,90,3.148
BeTiO3,Be,Ti,cubic,-1.778,1.354,0,10.925,0,3.794,3.794,90,90,0.033
SnPmO3,Sn,Pm,cubic,-1.778,0.953,-0.004,17.465,0,4.437,4.437,90,90,-3.172
HfTbO3,Hf,Tb,cubic,-1.777,1.73,0.167,15.473,0,4.261,4.261,90,90,-7.388
NbLuO3,Nb,Lu,cubic,-1.776,1.48,0.4,14.095,0,4.131,4.131,90,90,-4.611
InYO3,In,Y,cubic,-1.776,1.05,-0.136,16.177,0,4.325,4.325,90,90,-4.331
CrHoO3,Cr,Ho,cubic,-1.776,1.435,0.776,15.755,0,4.287,4.287,90,90,-4.611
IrEuO3,Ir,Eu,rhombohedral,-1.774,0.323,0.2,15.125,0,6.062,6.062,58.3,58.3,-13.252
ZrCoO3,Zr,Co,cubic,-1.774,0.903,-0.116,9.764,0,3.655,3.655,90,90,1.235
AsPaO3,As,Pa,cubic,-1.769,0.572,0.001,16.587,0,4.361,4.361,90,90,2.575
LiSmO3,Li,Sm,cubic,-1.769,0.763,0.4,17.683,0,4.455,4.455,90,90,-2.137
LuReO3,Lu,Re,cubic,-1.769,0.981,0.138,12.132,0,3.929,3.929,90,90,-0.465
GeLuO3,Ge,Lu,cubic,-1.769,1.062,-0.2,14.708,0,4.19,4.19,90,90,-1.926
PaZnO3,Pa,Zn,cubic,-1.765,0.754,0.204,11.677,0,3.879,3.879,90,90,0.884
NdCdO3,Nd,Cd,cubic,-1.764,0.604,-0.001,13.994,0,4.121,4.121,90,90,-0.394
RuBaO3,Ru,Ba,rhombohedral,-1.763,0.261,0.4,18.194,0.747,6.197,6.197,63.7,63.7,-12.327
PmIrO3,Pm,Ir,cubic,-1.763,0.554,0.001,12.562,0,3.975,3.975,90,90,-0.201
AuTiO3,Au,Ti,orthorhombic,-1.763,0.277,0,11.239,0,5.488,7.425,90,90,-0.149
LaTeO3,La,Te,cubic,-1.762,0.776,0.001,15.711,0,4.283,4.283,90,90,1.895
CdHoO3,Cd,Ho,cubic,-1.761,0.67,0.203,15.542,0,4.267,4.267,90,90,-2.387
PdNbO3,Pd,Nb,orthorhombic,-1.76,0.353,0.2,11.769,0,5.391,7.755,90,90,2.5
KCrO3,K,Cr,tetragonal,-1.76,0.289,0.237,13.099,0,3.614,5.013,90,90,-0.011
AsTiO3,As,Ti,cubic,-1.759,0.669,0.001,11.551,0,3.865,3.865,90,90,0.658
SbYO3,Sb,Y,cubic,-1.759,0.961,0,15.899,0,4.3,4.3,90,90,-2.971
UPdO3,U,Pd,cubic,-1.758,0.793,0.592,12.851,0,4.005,4.005,90,90,0.772
EuTlO3,Eu,Tl,orthorhombic,-1.756,0.088,0.047,14.166,0,5.709,8.144,90,90,-0.874
PdCeO3,Pd,Ce,orthorhombic,-1.756,0.351,0,14.554,0,5.847,8.22,90,90,-5.49
YSbO3,Y,Sb,cubic,-1.756,0.965,0,14.858,0,4.204,4.204,90,90,1.154
CuPuO3,Cu,Pu,cubic,-1.756,0.523,0.601,15.125,0.801,4.229,4.229,90,90,0.726
PbCeO3,Pb,Ce,cubic,-1.755,0.622,0.197,18.335,0,4.509,4.509,90,90,-1.369
TeTiO3,Te,Ti,cubic,-1.754,0.581,-0.003,12.204,0,3.937,3.937,90,90,2.349
TlVO3,Tl,V,orthorhombic,-1.754,0.216,0.399,11.634,0,5.406,7.807,90,90,1.822
RhYbO3,Rh,Yb,orthorhombic,-1.754,0.36,0,12.146,0,5.663,7.555,90,90,-8.752
EuSrO3,Eu,Sr,cubic,-1.754,0.901,-0.081,16.601,0,4.362,4.362,90,90,-2.838
ThIrO3,Th,Ir,cubic,-1.754,1.107,0,12.993,0,4.02,4.02,90,90,-0.592
NbHgO3,Nb,Hg,orthorhombic,-1.753,0.324,0,16.402,0,5.568,9.406,90,90,-10.886
EuNaO3,Eu,Na,orthorhombic,-1.751,0.234,0,12.024,0,5.995,6.374,90,90,-2.046
PbMoO3,Pb,Mo,tetragonal,-1.751,0.137,0,12.931,0,3.999,4.043,90,90,4.758
VDyO3,V,Dy,cubic,-1.75,1.521,0.4,15.483,0,4.262,4.262,90,90,-5.732
TeScO3,Te,Sc,cubic,-1.749,0.749,0,13.235,0,4.045,4.045,90,90,-2.076
MoUO3,Mo,U,cubic,-1.748,1.19,1.2,16.178,0,4.325,4.325,90,90,0.006
LiPmO3,Li,Pm,cubic,-1.748,0.772,0.4,17.917,0,4.474,4.474,90,90,-2.171
TbRhO3,Tb,Rh,cubic,-1.747,0.537,0,12.011,0,3.916,3.916,90,90,-0.048
PdThO3,Pd,Th,cubic,-1.746,1.055,0.425,18.304,0,4.507,4.507,90,90,-2.178
PrBiO3,Pr,Bi,cubic,-1.746,0.779,0,16.619,0,4.364,4.364,90,90,1.423
VGdO3,V,Gd,cubic,-1.746,1.509,0.398,15.956,0,4.305,4.305,90,90,-5.305
ZnMoO3,Zn,Mo,orthorhombic,-1.746,0.221,0.4,10.706,0,5.262,7.728,90,90,3.816
InGdO3,In,Gd,cubic,-1.745,1.074,-0.167,16.491,0,4.353,4.353,90,90,-4.453
NiHfO3,Ni,Hf,cubic,-1.744,1.056,0.4,13.216,0,4.043,4.043,90,90,-2.313
GaScO3,Ga,Sc,cubic,-1.744,1.21,-0.011,13.008,0,4.022,4.022,90,90,-4.511
BiPmO3,Bi,Pm,cubic,-1.744,0.831,0.006,17.691,0,4.456,4.456,90,90,-2.951
GdOsO3,Gd,Os,cubic,-1.743,0.698,0.005,12.242,0,3.941,3.941,90,90,0.333
NaCrO3,Na,Cr,orthorhombic,-1.743,0.27,0.2,9.961,0,5.151,7.398,90,90,-12.261
SmIrO3,Sm,Ir,cubic,-1.741,0.589,0,12.509,0,3.969,3.969,90,90,-0.334
NpPtO3,Np,Pt,cubic,-1.74,0.723,0.804,13.306,0,4.052,4.052,90,90,0.289
WTlO3,W,Tl,orthorhombic,-1.74,0.217,-0.001,18.012,0,5.342,10.281,90,90,-13.345
TlMoO3,Tl,Mo,cubic,-1.74,0.145,0,12.788,0,3.999,3.999,90,90,4.161
MnCrO3,Mn,Cr,cubic,-1.739,0.511,1.4,10.557,0,3.751,3.751,90,90,0.722
CuWO3,Cu,W,rhombohedral,-1.739,0.217,-0.001,10.669,0,5.5,5.5,56,56,4.639
GaLuO3,Ga,Lu,cubic,-1.738,1.293,-0.398,15.276,0,4.243,4.243,90,90,-4.527
CrDyO3,Cr,Dy,cubic,-1.738,1.465,0.817,15.988,0,4.308,4.308,90,90,-4.771
BePaO3,Be,Pa,cubic,-1.738,1.308,0.001,16.397,0,4.344,4.344,90,90,4.253
CuEuO3,Cu,Eu,orthorhombic,-1.738,0.104,0.2,12.733,0,4.838,8.931,90,90,-6.969
CuVO3,Cu,V,orthorhombic,-1.737,0.111,0,9.48,0.343,4.949,7.463,90,90,1.779