formula,atom a,atom b,lowest distortion,e_form,mu_b,vpa,gap pbe,a,alpha,beta,gamma,e_form oxygen
PrNiO3,Pr,Ni,orthorhombic,-2.312,0.198,11.169,0,5.395,90,90,90,1.493
MoBaO3,Mo,Ba,rhombohedral,-2.311,0,18.697,0.788,6.254,63.7,63.7,63.7,-14.618
TlHoO3,Tl,Ho,orthorhombic,-2.311,0,14.136,0.876,5.75,90,90,90,-3.018
ZnSmO3,Zn,Sm,orthorhombic,-2.311,0.2,13.484,0.543,5.451,90,90,90,-4.454
TbZnO3,Tb,Zn,orthorhombic,-2.311,0,11.383,0,5.256,90,90,90,-0.127
MoSrO3,Mo,Sr,rhombohedral,-2.31,0,16.33,0.638,6.015,62.8,62.8,62.8,-13.854
MoCaO3,Mo,Ca,orthorhombic,-2.31,0.399,13.22,0,5.553,90,90,90,-10.717
LuCuO3,Lu,Cu,orthorhombic,-2.309,0,10.498,0.273,5.121,90,90,90,0.256
ThMoO3,Th,Mo,cubic,-2.309,0.01,12.816,0,4.002,90,90,90,1.416
EuBeO3,Eu,Be,cubic,-2.309,0.398,9.202,0,3.583,90,90,90,-0.922
UMoO3,U,Mo,cubic,-2.307,0.621,12.796,0,4,90,90,90,2.262
CsTiO3,Cs,Ti,tetragonal,-2.307,0.186,15.266,0,3.901,90,90,90,-0.798
NaLaO3,Na,La,orthorhombic,-2.306,0,14.794,2.633,6.247,90,90,90,-1.372
TmCuO3,Tm,Cu,orthorhombic,-2.306,0,10.66,0.268,5.152,90,90,90,0.436
DyCeO3,Dy,Ce,cubic,-2.306,0,18.617,0,4.532,90,90,90,-3.241
TbPrO3,Tb,Pr,cubic,-2.304,0,18.119,0.479,4.491,90,90,90,-1.416
TmPrO3,Tm,Pr,cubic,-2.304,0,18.02,0,4.483,90,90,90,-3.262